
FAST Summary File

Predictions were generated on 20-Feb-2023 at 11:20:54 using OpenFAST, compiled as a 64-bit application using double precision at commit v3.0.0-461-g2f1e4f71-dirty
  compiled with
    NWTC Subroutine Library
    ElastoDyn
    BeamDyn (unknown version, unknown date) [not called]
    InflowWind (unknown version, unknown date) [not called]
    AeroDyn14 (unknown version, unknown date) [not called]
    AeroDyn (unknown version, unknown date) [not called]
    ServoDyn (unknown version, unknown date) [not called]
    HydroDyn (unknown version, unknown date) [not called]
    SubDyn
    ExtPtfm_MCKF (unknown version, unknown date) [not called]
    MAP (unknown version, unknown date) [not called]
    FEAMooring (unknown version, unknown date) [not called]
    MoorDyn (unknown version, unknown date) [not called]
    OrcaFlexInterface (unknown version, unknown date) [not called]
    IceFloe (unknown version, unknown date) [not called]
    IceDyn (unknown version, unknown date) [not called]


Modeling a land-based turbine
Description from the FAST input file: 
  FAST Certification Test #19: NREL 5.0 MW Baseline Wind Turbine with OC3 Monopile RF Configuration, for use in offshore analysis

Interpolation order for input/output time histories: 2 (quadratic)
Number of correction iterations:  0
Number of rows in Jacobian matrix used for coupling ElastoDyn, SubDyn, HydroDyn, OrcaFlex, ExtPtfm_MCKF, and/or BeamDyn:     12


   Requested Time Steps  
  -------------------------------------------------
  Component          Time Step (s)    Subcycles (-)
  -----------------  ---------------  -------------
  FAST (glue code)    5.000E-03
  ElastoDyn           5.000E-03              1
  SubDyn              5.000E-03              1
  FAST output files   5.000E-02             10^-1


   Requested Channels in FAST Output File(s)  
  --------------------------------------------
  Number  Name                  Units                 Generated by
  ------  --------------------  --------------------  ------------
       1  Time                  (s)                   OpenFAST
       2  TwHt1TPxi             (m)                   ElastoDyn
       3  TwHt1TPyi             (m)                   ElastoDyn
       4  TTDspTwst             (deg)                 ElastoDyn
       5  PtfmSurge             (m)                   ElastoDyn
       6  PtfmSway              (m)                   ElastoDyn
       7  PtfmRoll              (deg)                 ElastoDyn
       8  PtfmPitch             (deg)                 ElastoDyn
       9  M1N1TDXss             (m)                   SubDyn
      10  M1N1TDYss             (m)                   SubDyn
      11  M1N2TDXss             (m)                   SubDyn
      12  M1N2TDYss             (m)                   SubDyn
      13  M2N1TDXss             (m)                   SubDyn
      14  M2N1TDYss             (m)                   SubDyn
      15  M2N2TDXss             (m)                   SubDyn
      16  M2N2TDYss             (m)                   SubDyn
      17  M3N1TDXss             (m)                   SubDyn
      18  M3N1TDYss             (m)                   SubDyn
      19  M3N2TDXss             (m)                   SubDyn
      20  M3N2TDYss             (m)                   SubDyn
      21  M4N1TDXss             (m)                   SubDyn
      22  M4N1TDYss             (m)                   SubDyn
      23  M4N2TDXss             (m)                   SubDyn
      24  M4N2TDYss             (m)                   SubDyn
      25  M5N1TDXss             (m)                   SubDyn
      26  M5N1TDYss             (m)                   SubDyn
      27  M5N2TDXss             (m)                   SubDyn
      28  M5N2TDYss             (m)                   SubDyn
      29  M6N1TDXss             (m)                   SubDyn
      30  M6N1TDYss             (m)                   SubDyn
      31  M6N2TDXss             (m)                   SubDyn
      32  M6N2TDYss             (m)                   SubDyn
      33  M7N1TDXss             (m)                   SubDyn
      34  M7N1TDYss             (m)                   SubDyn
      35  M7N2TDXss             (m)                   SubDyn
      36  M7N2TDYss             (m)                   SubDyn
      37  M8N1TDXss             (m)                   SubDyn
      38  M8N1TDYss             (m)                   SubDyn
      39  M8N2TDXss             (m)                   SubDyn
      40  M8N2TDYss             (m)                   SubDyn
      41  M1N1RDxe              (rad)                 SubDyn
      42  M1N1RDYe              (rad)                 SubDyn
      43  M1N1RDZe              (rad)                 SubDyn
      44  M1N2RDXe              (rad)                 SubDyn
      45  M1N2RDYe              (rad)                 SubDyn
      46  M1N2RDZe              (rad)                 SubDyn
      47  M2N1RDXe              (rad)                 SubDyn
      48  M2N1RDYe              (rad)                 SubDyn
      49  M2N1RDZe              (rad)                 SubDyn
      50  M2N2RDXe              (rad)                 SubDyn
      51  M2N2RDYe              (rad)                 SubDyn
      52  M2N2RDZe              (rad)                 SubDyn
      53  M3N1RDXe              (rad)                 SubDyn
      54  M3N1RDYe              (rad)                 SubDyn
      55  M3N1RDZe              (rad)                 SubDyn
      56  M3N2RDXe              (rad)                 SubDyn
      57  M3N2RDYe              (rad)                 SubDyn
      58  M3N2RDZe              (rad)                 SubDyn
      59  M4N2RDXe              (rad)                 SubDyn
      60  M4N2RDYe              (rad)                 SubDyn
      61  M4N1RDZe              (rad)                 SubDyn
      62  M4N2RDXe              (rad)                 SubDyn
      63  M4N2RDYe              (rad)                 SubDyn
      64  M4N2RDZe              (rad)                 SubDyn
      65  M5N1RDXe              (rad)                 SubDyn
      66  M5N1RDYe              (rad)                 SubDyn
      67  M5N1RDZe              (rad)                 SubDyn
      68  M5N2RDXe              (rad)                 SubDyn
      69  M5N2RDYe              (rad)                 SubDyn
      70  M5N2RDZe              (rad)                 SubDyn
      71  M6N1RDXe              (rad)                 SubDyn
      72  M6N1RDYe              (rad)                 SubDyn
      73  M6N1RDZe              (rad)                 SubDyn
      74  M6N2RDXe              (rad)                 SubDyn
      75  M6N2RDYe              (rad)                 SubDyn
      76  M6N2RDZe              (rad)                 SubDyn
      77  M7N1RDXe              (rad)                 SubDyn
      78  M7N1RDYe              (rad)                 SubDyn
      79  M7N1RDZe              (rad)                 SubDyn
      80  M7N2RDXe              (rad)                 SubDyn
      81  M7N2RDYe              (rad)                 SubDyn
      82  M7N2RDZe              (rad)                 SubDyn
      83  M8N1RDXe              (rad)                 SubDyn
      84  M8N1RDYe              (rad)                 SubDyn
      85  M8N1RDZe              (rad)                 SubDyn
      86  M8N2RDXe              (rad)                 SubDyn
      87  M8N2RDYe              (rad)                 SubDyn
      88  M8N2RDZe              (rad)                 SubDyn
