
Predictions were generated on 20-Feb-2023 at 11:13:34 using OpenFAST, compiled as a 64-bit application using double precision at commit v3.0.0-461-g2f1e4f71-dirty
 linked with  NWTC Subroutine Library; ElastoDyn; SubDyn

Description from the FAST input file: FAST Certification Test #19: NREL 5.0 MW Baseline Wind Turbine with OC3 Monopile RF Configuration, for use in offshore analysis

Time	TwHt1TPxi	TwHt1TPyi	TTDspTwst	PtfmSurge	PtfmSway	PtfmRoll	PtfmPitch
(s)	(m)	(m)	(deg)	(m)	(m)	(deg)	(deg)
    0.0000	 0.000E+00	 0.000E+00	 0.000E+00	 0.000E+00	 0.000E+00	 0.000E+00	 0.000E+00
    0.0500	 0.000E+00	 0.000E+00	 0.000E+00	 0.000E+00	 0.000E+00	 0.000E+00	 0.000E+00
    0.1000	 0.000E+00	 0.000E+00	 0.000E+00	 0.000E+00	 0.000E+00	 0.000E+00	 0.000E+00
    0.1500	 0.000E+00	 0.000E+00	 0.000E+00	 0.000E+00	 0.000E+00	 0.000E+00	 0.000E+00
    0.2000	 0.000E+00	 0.000E+00	 0.000E+00	 0.000E+00	 0.000E+00	 0.000E+00	 0.000E+00
    0.2500	 0.000E+00	 0.000E+00	 0.000E+00	 0.000E+00	 0.000E+00	 0.000E+00	 0.000E+00
    0.3000	 0.000E+00	 0.000E+00	 0.000E+00	 0.000E+00	 0.000E+00	 0.000E+00	 0.000E+00
    0.3500	 0.000E+00	 0.000E+00	 0.000E+00	 0.000E+00	 0.000E+00	 0.000E+00	 0.000E+00
    0.4000	 0.000E+00	 0.000E+00	 0.000E+00	 0.000E+00	 0.000E+00	 0.000E+00	 0.000E+00
    0.4500	 0.000E+00	 0.000E+00	 0.000E+00	 0.000E+00	 0.000E+00	 0.000E+00	 0.000E+00
    0.5000	 0.000E+00	 0.000E+00	 0.000E+00	 0.000E+00	 0.000E+00	 0.000E+00	 0.000E+00
    0.5500	 0.000E+00	 0.000E+00	 0.000E+00	 0.000E+00	 0.000E+00	 0.000E+00	 0.000E+00
    0.6000	 0.000E+00	 0.000E+00	 0.000E+00	 0.000E+00	 0.000E+00	 0.000E+00	 0.000E+00
    0.6500	 0.000E+00	 0.000E+00	 0.000E+00	 0.000E+00	 0.000E+00	 0.000E+00	 0.000E+00
    0.7000	 0.000E+00	 0.000E+00	 0.000E+00	 0.000E+00	 0.000E+00	 0.000E+00	 0.000E+00
    0.7500	 0.000E+00	 0.000E+00	 0.000E+00	 0.000E+00	 0.000E+00	 0.000E+00	 0.000E+00
    0.8000	 0.000E+00	 0.000E+00	 0.000E+00	 0.000E+00	 0.000E+00	 0.000E+00	 0.000E+00
    0.8500	 0.000E+00	 0.000E+00	 0.000E+00	 0.000E+00	 0.000E+00	 0.000E+00	 0.000E+00
    0.9000	 0.000E+00	 0.000E+00	 0.000E+00	 0.000E+00	 0.000E+00	 0.000E+00	 0.000E+00
    0.9500	 0.000E+00	 0.000E+00	 0.000E+00	 0.000E+00	 0.000E+00	 0.000E+00	 0.000E+00
    1.0000	 0.000E+00	 0.000E+00	 0.000E+00	 0.000E+00	 0.000E+00	 0.000E+00	 0.000E+00
    1.0500	 0.000E+00	 0.000E+00	 0.000E+00	 0.000E+00	 0.000E+00	 0.000E+00	 0.000E+00
    1.1000	 0.000E+00	 0.000E+00	 0.000E+00	 0.000E+00	 0.000E+00	 0.000E+00	 0.000E+00
    1.1500	 0.000E+00	 0.000E+00	 0.000E+00	 0.000E+00	 0.000E+00	 0.000E+00	 0.000E+00
    1.2000	 0.000E+00	 0.000E+00	 0.000E+00	 0.000E+00	 0.000E+00	 0.000E+00	 0.000E+00
    1.2500	 0.000E+00	 0.000E+00	 0.000E+00	 0.000E+00	 0.000E+00	 0.000E+00	 0.000E+00
    1.3000	 0.000E+00	 0.000E+00	 0.000E+00	 0.000E+00	 0.000E+00	 0.000E+00	 0.000E+00
    1.3500	 0.000E+00	 0.000E+00	 0.000E+00	 0.000E+00	 0.000E+00	 0.000E+00	 0.000E+00
    1.4000	 0.000E+00	 0.000E+00	 0.000E+00	 0.000E+00	 0.000E+00	 0.000E+00	 0.000E+00
    1.4500	 0.000E+00	 0.000E+00	 0.000E+00	 0.000E+00	 0.000E+00	 0.000E+00	 0.000E+00
    1.5000	 0.000E+00	 0.000E+00	 0.000E+00	 0.000E+00	 0.000E+00	 0.000E+00	 0.000E+00
    1.5500	 0.000E+00	 0.000E+00	 0.000E+00	 0.000E+00	 0.000E+00	 0.000E+00	 0.000E+00
    1.6000	 0.000E+00	 0.000E+00	 0.000E+00	 0.000E+00	 0.000E+00	 0.000E+00	 0.000E+00
    1.6500	 0.000E+00	 0.000E+00	 0.000E+00	 0.000E+00	 0.000E+00	 0.000E+00	 0.000E+00
    1.7000	 0.000E+00	 0.000E+00	 0.000E+00	 0.000E+00	 0.000E+00	 0.000E+00	 0.000E+00
    1.7500	 0.000E+00	 0.000E+00	 0.000E+00	 0.000E+00	 0.000E+00	 0.000E+00	 0.000E+00
    1.8000	 0.000E+00	 0.000E+00	 0.000E+00	 0.000E+00	 0.000E+00	 0.000E+00	 0.000E+00
    1.8500	 0.000E+00	 0.000E+00	 0.000E+00	 0.000E+00	 0.000E+00	 0.000E+00	 0.000E+00
    1.9000	 0.000E+00	 0.000E+00	 0.000E+00	 0.000E+00	 0.000E+00	 0.000E+00	 0.000E+00
    1.9500	 0.000E+00	 0.000E+00	 0.000E+00	 0.000E+00	 0.000E+00	 0.000E+00	 0.000E+00
    2.0000	 0.000E+00	 0.000E+00	 0.000E+00	 0.000E+00	 0.000E+00	 0.000E+00	 0.000E+00
    2.0500	 0.000E+00	 0.000E+00	 0.000E+00	 0.000E+00	 0.000E+00	 0.000E+00	 0.000E+00
    2.1000	 0.000E+00	 0.000E+00	 0.000E+00	 0.000E+00	 0.000E+00	 0.000E+00	 0.000E+00
    2.1500	 0.000E+00	 0.000E+00	 0.000E+00	 0.000E+00	 0.000E+00	 0.000E+00	 0.000E+00
    2.2000	 0.000E+00	 0.000E+00	 0.000E+00	 0.000E+00	 0.000E+00	 0.000E+00	 0.000E+00
    2.2500	 0.000E+00	 0.000E+00	 0.000E+00	 0.000E+00	 0.000E+00	 0.000E+00	 0.000E+00
    2.3000	 0.000E+00	 0.000E+00	 0.000E+00	 0.000E+00	 0.000E+00	 0.000E+00	 0.000E+00
    2.3500	 0.000E+00	 0.000E+00	 0.000E+00	 0.000E+00	 0.000E+00	 0.000E+00	 0.000E+00
    2.4000	 0.000E+00	 0.000E+00	 0.000E+00	 0.000E+00	 0.000E+00	 0.000E+00	 0.000E+00
    2.4500	 0.000E+00	 0.000E+00	 0.000E+00	 0.000E+00	 0.000E+00	 0.000E+00	 0.000E+00
    2.5000	 0.000E+00	 0.000E+00	 0.000E+00	 0.000E+00	 0.000E+00	 0.000E+00	 0.000E+00
    2.5500	 0.000E+00	 0.000E+00	 0.000E+00	 0.000E+00	 0.000E+00	 0.000E+00	 0.000E+00
    2.6000	 0.000E+00	 0.000E+00	 0.000E+00	 0.000E+00	 0.000E+00	 0.000E+00	 0.000E+00
    2.6500	 0.000E+00	 0.000E+00	 0.000E+00	 0.000E+00	 0.000E+00	 0.000E+00	 0.000E+00
    2.7000	 0.000E+00	 0.000E+00	 0.000E+00	 0.000E+00	 0.000E+00	 0.000E+00	 0.000E+00
    2.7500	 0.000E+00	 0.000E+00	 0.000E+00	 0.000E+00	 0.000E+00	 0.000E+00	 0.000E+00
    2.8000	 0.000E+00	 0.000E+00	 0.000E+00	 0.000E+00	 0.000E+00	 0.000E+00	 0.000E+00
    2.8500	 0.000E+00	 0.000E+00	 0.000E+00	 0.000E+00	 0.000E+00	 0.000E+00	 0.000E+00
    2.9000	 0.000E+00	 0.000E+00	 0.000E+00	 0.000E+00	 0.000E+00	 0.000E+00	 0.000E+00
    2.9500	 0.000E+00	 0.000E+00	 0.000E+00	 0.000E+00	 0.000E+00	 0.000E+00	 0.000E+00
    3.0000	 0.000E+00	 0.000E+00	 0.000E+00	 0.000E+00	 0.000E+00	 0.000E+00	 0.000E+00
    3.0500	 0.000E+00	 0.000E+00	 0.000E+00	 0.000E+00	 0.000E+00	 0.000E+00	 0.000E+00
    3.1000	 0.000E+00	 0.000E+00	 0.000E+00	 0.000E+00	 0.000E+00	 0.000E+00	 0.000E+00
    3.1500	 0.000E+00	 0.000E+00	 0.000E+00	 0.000E+00	 0.000E+00	 0.000E+00	 0.000E+00
    3.2000	 0.000E+00	 0.000E+00	 0.000E+00	 0.000E+00	 0.000E+00	 0.000E+00	 0.000E+00
    3.2500	 0.000E+00	 0.000E+00	 0.000E+00	 0.000E+00	 0.000E+00	 0.000E+00	 0.000E+00
    3.3000	 0.000E+00	 0.000E+00	 0.000E+00	 0.000E+00	 0.000E+00	 0.000E+00	 0.000E+00
    3.3500	 0.000E+00	 0.000E+00	 0.000E+00	 0.000E+00	 0.000E+00	 0.000E+00	 0.000E+00
    3.4000	 0.000E+00	 0.000E+00	 0.000E+00	 0.000E+00	 0.000E+00	 0.000E+00	 0.000E+00
    3.4500	 0.000E+00	 0.000E+00	 0.000E+00	 0.000E+00	 0.000E+00	 0.000E+00	 0.000E+00
    3.5000	 0.000E+00	 0.000E+00	 0.000E+00	 0.000E+00	 0.000E+00	 0.000E+00	 0.000E+00
    3.5500	 0.000E+00	 0.000E+00	 0.000E+00	 0.000E+00	 0.000E+00	 0.000E+00	 0.000E+00
    3.6000	 0.000E+00	 0.000E+00	 0.000E+00	 0.000E+00	 0.000E+00	 0.000E+00	 0.000E+00
    3.6500	 0.000E+00	 0.000E+00	 0.000E+00	 0.000E+00	 0.000E+00	 0.000E+00	 0.000E+00
    3.7000	 0.000E+00	 0.000E+00	 0.000E+00	 0.000E+00	 0.000E+00	 0.000E+00	 0.000E+00
    3.7500	 0.000E+00	 0.000E+00	 0.000E+00	 0.000E+00	 0.000E+00	 0.000E+00	 0.000E+00
    3.8000	 0.000E+00	 0.000E+00	 0.000E+00	 0.000E+00	 0.000E+00	 0.000E+00	 0.000E+00
    3.8500	 0.000E+00	 0.000E+00	 0.000E+00	 0.000E+00	 0.000E+00	 0.000E+00	 0.000E+00
    3.9000	 0.000E+00	 0.000E+00	 0.000E+00	 0.000E+00	 0.000E+00	 0.000E+00	 0.000E+00
    3.9500	 0.000E+00	 0.000E+00	 0.000E+00	 0.000E+00	 0.000E+00	 0.000E+00	 0.000E+00
    4.0000	 0.000E+00	 0.000E+00	 0.000E+00	 0.000E+00	 0.000E+00	 0.000E+00	 0.000E+00
    4.0500	 0.000E+00	 0.000E+00	 0.000E+00	 0.000E+00	 0.000E+00	 0.000E+00	 0.000E+00
    4.1000	 0.000E+00	 0.000E+00	 0.000E+00	 0.000E+00	 0.000E+00	 0.000E+00	 0.000E+00
    4.1500	 0.000E+00	 0.000E+00	 0.000E+00	 0.000E+00	 0.000E+00	 0.000E+00	 0.000E+00
    4.2000	 0.000E+00	 0.000E+00	 0.000E+00	 0.000E+00	 0.000E+00	 0.000E+00	 0.000E+00
    4.2500	 0.000E+00	 0.000E+00	 0.000E+00	 0.000E+00	 0.000E+00	 0.000E+00	 0.000E+00
    4.3000	 0.000E+00	 0.000E+00	 0.000E+00	 0.000E+00	 0.000E+00	 0.000E+00	 0.000E+00
    4.3500	 0.000E+00	 0.000E+00	 0.000E+00	 0.000E+00	 0.000E+00	 0.000E+00	 0.000E+00
    4.4000	 0.000E+00	 0.000E+00	 0.000E+00	 0.000E+00	 0.000E+00	 0.000E+00	 0.000E+00
    4.4500	 0.000E+00	 0.000E+00	 0.000E+00	 0.000E+00	 0.000E+00	 0.000E+00	 0.000E+00
    4.5000	 0.000E+00	 0.000E+00	 0.000E+00	 0.000E+00	 0.000E+00	 0.000E+00	 0.000E+00
    4.5500	 0.000E+00	 0.000E+00	 0.000E+00	 0.000E+00	 0.000E+00	 0.000E+00	 0.000E+00
    4.6000	 0.000E+00	 0.000E+00	 0.000E+00	 0.000E+00	 0.000E+00	 0.000E+00	 0.000E+00
    4.6500	 0.000E+00	 0.000E+00	 0.000E+00	 0.000E+00	 0.000E+00	 0.000E+00	 0.000E+00
    4.7000	 0.000E+00	 0.000E+00	 0.000E+00	 0.000E+00	 0.000E+00	 0.000E+00	 0.000E+00
    4.7500	 0.000E+00	 0.000E+00	 0.000E+00	 0.000E+00	 0.000E+00	 0.000E+00	 0.000E+00
    4.8000	 0.000E+00	 0.000E+00	 0.000E+00	 0.000E+00	 0.000E+00	 0.000E+00	 0.000E+00
    4.8500	 0.000E+00	 0.000E+00	 0.000E+00	 0.000E+00	 0.000E+00	 0.000E+00	 0.000E+00
    4.9000	 0.000E+00	 0.000E+00	 0.000E+00	 0.000E+00	 0.000E+00	 0.000E+00	 0.000E+00
    4.9500	 0.000E+00	 0.000E+00	 0.000E+00	 0.000E+00	 0.000E+00	 0.000E+00	 0.000E+00
    5.0000	 0.000E+00	 0.000E+00	 0.000E+00	 0.000E+00	 0.000E+00	 0.000E+00	 0.000E+00
    5.0500	 0.000E+00	 0.000E+00	 0.000E+00	 0.000E+00	 0.000E+00	 0.000E+00	 0.000E+00
    5.1000	 0.000E+00	 0.000E+00	 0.000E+00	 0.000E+00	 0.000E+00	 0.000E+00	 0.000E+00
    5.1500	 0.000E+00	 0.000E+00	 0.000E+00	 0.000E+00	 0.000E+00	 0.000E+00	 0.000E+00
    5.2000	 0.000E+00	 0.000E+00	 0.000E+00	 0.000E+00	 0.000E+00	 0.000E+00	 0.000E+00
    5.2500	 0.000E+00	 0.000E+00	 0.000E+00	 0.000E+00	 0.000E+00	 0.000E+00	 0.000E+00
    5.3000	 0.000E+00	 0.000E+00	 0.000E+00	 0.000E+00	 0.000E+00	 0.000E+00	 0.000E+00
    5.3500	 0.000E+00	 0.000E+00	 0.000E+00	 0.000E+00	 0.000E+00	 0.000E+00	 0.000E+00
    5.4000	 0.000E+00	 0.000E+00	 0.000E+00	 0.000E+00	 0.000E+00	 0.000E+00	 0.000E+00
    5.4500	 0.000E+00	 0.000E+00	 0.000E+00	 0.000E+00	 0.000E+00	 0.000E+00	 0.000E+00
    5.5000	 0.000E+00	 0.000E+00	 0.000E+00	 0.000E+00	 0.000E+00	 0.000E+00	 0.000E+00
    5.5500	 0.000E+00	 0.000E+00	 0.000E+00	 0.000E+00	 0.000E+00	 0.000E+00	 0.000E+00
    5.6000	 0.000E+00	 0.000E+00	 0.000E+00	 0.000E+00	 0.000E+00	 0.000E+00	 0.000E+00
    5.6500	 0.000E+00	 0.000E+00	 0.000E+00	 0.000E+00	 0.000E+00	 0.000E+00	 0.000E+00
    5.7000	 0.000E+00	 0.000E+00	 0.000E+00	 0.000E+00	 0.000E+00	 0.000E+00	 0.000E+00
    5.7500	 0.000E+00	 0.000E+00	 0.000E+00	 0.000E+00	 0.000E+00	 0.000E+00	 0.000E+00
    5.8000	 0.000E+00	 0.000E+00	 0.000E+00	 0.000E+00	 0.000E+00	 0.000E+00	 0.000E+00
    5.8500	 0.000E+00	 0.000E+00	 0.000E+00	 0.000E+00	 0.000E+00	 0.000E+00	 0.000E+00
    5.9000	 0.000E+00	 0.000E+00	 0.000E+00	 0.000E+00	 0.000E+00	 0.000E+00	 0.000E+00
    5.9500	 0.000E+00	 0.000E+00	 0.000E+00	 0.000E+00	 0.000E+00	 0.000E+00	 0.000E+00
    6.0000	 0.000E+00	 0.000E+00	 0.000E+00	 0.000E+00	 0.000E+00	 0.000E+00	 0.000E+00
    6.0500	 0.000E+00	 0.000E+00	 0.000E+00	 0.000E+00	 0.000E+00	 0.000E+00	 0.000E+00
    6.1000	 0.000E+00	 0.000E+00	 0.000E+00	 0.000E+00	 0.000E+00	 0.000E+00	 0.000E+00
    6.1500	 0.000E+00	 0.000E+00	 0.000E+00	 0.000E+00	 0.000E+00	 0.000E+00	 0.000E+00
    6.2000	 0.000E+00	 0.000E+00	 0.000E+00	 0.000E+00	 0.000E+00	 0.000E+00	 0.000E+00
    6.2500	 0.000E+00	 0.000E+00	 0.000E+00	 0.000E+00	 0.000E+00	 0.000E+00	 0.000E+00
    6.3000	 0.000E+00	 0.000E+00	 0.000E+00	 0.000E+00	 0.000E+00	 0.000E+00	 0.000E+00
    6.3500	 0.000E+00	 0.000E+00	 0.000E+00	 0.000E+00	 0.000E+00	 0.000E+00	 0.000E+00
    6.4000	 0.000E+00	 0.000E+00	 0.000E+00	 0.000E+00	 0.000E+00	 0.000E+00	 0.000E+00
    6.4500	 0.000E+00	 0.000E+00	 0.000E+00	 0.000E+00	 0.000E+00	 0.000E+00	 0.000E+00
    6.5000	 0.000E+00	 0.000E+00	 0.000E+00	 0.000E+00	 0.000E+00	 0.000E+00	 0.000E+00
    6.5500	 0.000E+00	 0.000E+00	 0.000E+00	 0.000E+00	 0.000E+00	 0.000E+00	 0.000E+00
    6.6000	 0.000E+00	 0.000E+00	 0.000E+00	 0.000E+00	 0.000E+00	 0.000E+00	 0.000E+00
    6.6500	 0.000E+00	 0.000E+00	 0.000E+00	 0.000E+00	 0.000E+00	 0.000E+00	 0.000E+00
    6.7000	 0.000E+00	 0.000E+00	 0.000E+00	 0.000E+00	 0.000E+00	 0.000E+00	 0.000E+00
    6.7500	 0.000E+00	 0.000E+00	 0.000E+00	 0.000E+00	 0.000E+00	 0.000E+00	 0.000E+00
    6.8000	 0.000E+00	 0.000E+00	 0.000E+00	 0.000E+00	 0.000E+00	 0.000E+00	 0.000E+00
    6.8500	 0.000E+00	 0.000E+00	 0.000E+00	 0.000E+00	 0.000E+00	 0.000E+00	 0.000E+00
    6.9000	 0.000E+00	 0.000E+00	 0.000E+00	 0.000E+00	 0.000E+00	 0.000E+00	 0.000E+00
    6.9500	 0.000E+00	 0.000E+00	 0.000E+00	 0.000E+00	 0.000E+00	 0.000E+00	 0.000E+00
    7.0000	 0.000E+00	 0.000E+00	 0.000E+00	 0.000E+00	 0.000E+00	 0.000E+00	 0.000E+00
    7.0500	 0.000E+00	 0.000E+00	 0.000E+00	 0.000E+00	 0.000E+00	 0.000E+00	 0.000E+00
    7.1000	 0.000E+00	 0.000E+00	 0.000E+00	 0.000E+00	 0.000E+00	 0.000E+00	 0.000E+00
    7.1500	 0.000E+00	 0.000E+00	 0.000E+00	 0.000E+00	 0.000E+00	 0.000E+00	 0.000E+00
    7.2000	 0.000E+00	 0.000E+00	 0.000E+00	 0.000E+00	 0.000E+00	 0.000E+00	 0.000E+00
    7.2500	 0.000E+00	 0.000E+00	 0.000E+00	 0.000E+00	 0.000E+00	 0.000E+00	 0.000E+00
    7.3000	 0.000E+00	 0.000E+00	 0.000E+00	 0.000E+00	 0.000E+00	 0.000E+00	 0.000E+00
    7.3500	 0.000E+00	 0.000E+00	 0.000E+00	 0.000E+00	 0.000E+00	 0.000E+00	 0.000E+00
    7.4000	 0.000E+00	 0.000E+00	 0.000E+00	 0.000E+00	 0.000E+00	 0.000E+00	 0.000E+00
    7.4500	 0.000E+00	 0.000E+00	 0.000E+00	 0.000E+00	 0.000E+00	 0.000E+00	 0.000E+00
    7.5000	 0.000E+00	 0.000E+00	 0.000E+00	 0.000E+00	 0.000E+00	 0.000E+00	 0.000E+00
    7.5500	 0.000E+00	 0.000E+00	 0.000E+00	 0.000E+00	 0.000E+00	 0.000E+00	 0.000E+00
    7.6000	 0.000E+00	 0.000E+00	 0.000E+00	 0.000E+00	 0.000E+00	 0.000E+00	 0.000E+00
    7.6500	 0.000E+00	 0.000E+00	 0.000E+00	 0.000E+00	 0.000E+00	 0.000E+00	 0.000E+00
    7.7000	 0.000E+00	 0.000E+00	 0.000E+00	 0.000E+00	 0.000E+00	 0.000E+00	 0.000E+00
    7.7500	 0.000E+00	 0.000E+00	 0.000E+00	 0.000E+00	 0.000E+00	 0.000E+00	 0.000E+00
    7.8000	 0.000E+00	 0.000E+00	 0.000E+00	 0.000E+00	 0.000E+00	 0.000E+00	 0.000E+00
    7.8500	 0.000E+00	 0.000E+00	 0.000E+00	 0.000E+00	 0.000E+00	 0.000E+00	 0.000E+00
    7.9000	 0.000E+00	 0.000E+00	 0.000E+00	 0.000E+00	 0.000E+00	 0.000E+00	 0.000E+00
    7.9500	 0.000E+00	 0.000E+00	 0.000E+00	 0.000E+00	 0.000E+00	 0.000E+00	 0.000E+00
    8.0000	 0.000E+00	 0.000E+00	 0.000E+00	 0.000E+00	 0.000E+00	 0.000E+00	 0.000E+00
    8.0500	 0.000E+00	 0.000E+00	 0.000E+00	 0.000E+00	 0.000E+00	 0.000E+00	 0.000E+00
    8.1000	 0.000E+00	 0.000E+00	 0.000E+00	 0.000E+00	 0.000E+00	 0.000E+00	 0.000E+00
    8.1500	 0.000E+00	 0.000E+00	 0.000E+00	 0.000E+00	 0.000E+00	 0.000E+00	 0.000E+00
    8.2000	 0.000E+00	 0.000E+00	 0.000E+00	 0.000E+00	 0.000E+00	 0.000E+00	 0.000E+00
    8.2500	 0.000E+00	 0.000E+00	 0.000E+00	 0.000E+00	 0.000E+00	 0.000E+00	 0.000E+00
    8.3000	 0.000E+00	 0.000E+00	 0.000E+00	 0.000E+00	 0.000E+00	 0.000E+00	 0.000E+00
    8.3500	 0.000E+00	 0.000E+00	 0.000E+00	 0.000E+00	 0.000E+00	 0.000E+00	 0.000E+00
    8.4000	 0.000E+00	 0.000E+00	 0.000E+00	 0.000E+00	 0.000E+00	 0.000E+00	 0.000E+00
    8.4500	 0.000E+00	 0.000E+00	 0.000E+00	 0.000E+00	 0.000E+00	 0.000E+00	 0.000E+00
    8.5000	 0.000E+00	 0.000E+00	 0.000E+00	 0.000E+00	 0.000E+00	 0.000E+00	 0.000E+00
    8.5500	 0.000E+00	 0.000E+00	 0.000E+00	 0.000E+00	 0.000E+00	 0.000E+00	 0.000E+00
    8.6000	 0.000E+00	 0.000E+00	 0.000E+00	 0.000E+00	 0.000E+00	 0.000E+00	 0.000E+00
    8.6500	 0.000E+00	 0.000E+00	 0.000E+00	 0.000E+00	 0.000E+00	 0.000E+00	 0.000E+00
    8.7000	 0.000E+00	 0.000E+00	 0.000E+00	 0.000E+00	 0.000E+00	 0.000E+00	 0.000E+00
    8.7500	 0.000E+00	 0.000E+00	 0.000E+00	 0.000E+00	 0.000E+00	 0.000E+00	 0.000E+00
    8.8000	 0.000E+00	 0.000E+00	 0.000E+00	 0.000E+00	 0.000E+00	 0.000E+00	 0.000E+00
    8.8500	 0.000E+00	 0.000E+00	 0.000E+00	 0.000E+00	 0.000E+00	 0.000E+00	 0.000E+00
    8.9000	 0.000E+00	 0.000E+00	 0.000E+00	 0.000E+00	 0.000E+00	 0.000E+00	 0.000E+00
    8.9500	 0.000E+00	 0.000E+00	 0.000E+00	 0.000E+00	 0.000E+00	 0.000E+00	 0.000E+00
    9.0000	 0.000E+00	 0.000E+00	 0.000E+00	 0.000E+00	 0.000E+00	 0.000E+00	 0.000E+00
    9.0500	 0.000E+00	 0.000E+00	 0.000E+00	 0.000E+00	 0.000E+00	 0.000E+00	 0.000E+00
    9.1000	 0.000E+00	 0.000E+00	 0.000E+00	 0.000E+00	 0.000E+00	 0.000E+00	 0.000E+00
    9.1500	 0.000E+00	 0.000E+00	 0.000E+00	 0.000E+00	 0.000E+00	 0.000E+00	 0.000E+00
    9.2000	 0.000E+00	 0.000E+00	 0.000E+00	 0.000E+00	 0.000E+00	 0.000E+00	 0.000E+00
    9.2500	 0.000E+00	 0.000E+00	 0.000E+00	 0.000E+00	 0.000E+00	 0.000E+00	 0.000E+00
    9.3000	 0.000E+00	 0.000E+00	 0.000E+00	 0.000E+00	 0.000E+00	 0.000E+00	 0.000E+00
    9.3500	 0.000E+00	 0.000E+00	 0.000E+00	 0.000E+00	 0.000E+00	 0.000E+00	 0.000E+00
    9.4000	 0.000E+00	 0.000E+00	 0.000E+00	 0.000E+00	 0.000E+00	 0.000E+00	 0.000E+00
    9.4500	 0.000E+00	 0.000E+00	 0.000E+00	 0.000E+00	 0.000E+00	 0.000E+00	 0.000E+00
    9.5000	 0.000E+00	 0.000E+00	 0.000E+00	 0.000E+00	 0.000E+00	 0.000E+00	 0.000E+00
    9.5500	 0.000E+00	 0.000E+00	 0.000E+00	 0.000E+00	 0.000E+00	 0.000E+00	 0.000E+00
    9.6000	 0.000E+00	 0.000E+00	 0.000E+00	 0.000E+00	 0.000E+00	 0.000E+00	 0.000E+00
    9.6500	 0.000E+00	 0.000E+00	 0.000E+00	 0.000E+00	 0.000E+00	 0.000E+00	 0.000E+00
    9.7000	 0.000E+00	 0.000E+00	 0.000E+00	 0.000E+00	 0.000E+00	 0.000E+00	 0.000E+00
    9.7500	 0.000E+00	 0.000E+00	 0.000E+00	 0.000E+00	 0.000E+00	 0.000E+00	 0.000E+00
    9.8000	 0.000E+00	 0.000E+00	 0.000E+00	 0.000E+00	 0.000E+00	 0.000E+00	 0.000E+00
    9.8500	 0.000E+00	 0.000E+00	 0.000E+00	 0.000E+00	 0.000E+00	 0.000E+00	 0.000E+00
    9.9000	 0.000E+00	 0.000E+00	 0.000E+00	 0.000E+00	 0.000E+00	 0.000E+00	 0.000E+00
    9.9500	 0.000E+00	 0.000E+00	 0.000E+00	 0.000E+00	 0.000E+00	 0.000E+00	 0.000E+00
   10.0000	 0.000E+00	 0.000E+00	 0.000E+00	 0.000E+00	 0.000E+00	 0.000E+00	 0.000E+00
   10.0500	 4.924E-10	-1.575E-12	 0.000E+00	 5.243E-09	 1.729E-12	-4.250E-11	-4.878E-08
   10.1000	-7.805E-09	 3.780E-12	 0.000E+00	 1.192E-08	-1.367E-11	 4.020E-11	 2.636E-07
   10.1500	-1.266E-09	 2.007E-12	 0.000E+00	-5.350E-08	-1.055E-11	 3.341E-11	 1.075E-06
   10.2000	 6.396E-08	-3.344E-12	 0.000E+00	-3.310E-07	-8.836E-12	-3.251E-11	 2.277E-06
   10.2500	 2.091E-07	-3.197E-12	 0.000E+00	-9.618E-07	-9.846E-12	 3.587E-11	 3.660E-06
   10.3000	 4.081E-07	-5.719E-12	 0.000E+00	-2.057E-06	-2.974E-12	 3.773E-11	 5.150E-06
   10.3500	 6.142E-07	-9.635E-12	 0.000E+00	-3.701E-06	 4.698E-12	-4.675E-11	 6.522E-06
   10.4000	 7.763E-07	-3.963E-12	 0.000E+00	-5.959E-06	-8.829E-13	 2.402E-11	 7.782E-06
   10.4500	 8.750E-07	-2.468E-13	 0.000E+00	-8.907E-06	 3.218E-13	 5.698E-11	 8.972E-06
   10.5000	 9.256E-07	-2.907E-12	 0.000E+00	-1.264E-05	 5.435E-12	-3.503E-11	 9.970E-06
   10.5500	 9.322E-07	-4.276E-12	 0.000E+00	-1.718E-05	 1.286E-11	-3.777E-11	 1.056E-05
   10.6000	 8.403E-07	-6.979E-12	 0.000E+00	-2.248E-05	 2.562E-11	-4.007E-11	 1.065E-05
   10.6500	 5.369E-07	-8.538E-12	 0.000E+00	-2.834E-05	 3.230E-11	-7.051E-11	 1.026E-05
   10.7000	-1.044E-07	-7.606E-12	 0.000E+00	-3.451E-05	 2.975E-11	-1.632E-10	 9.519E-06
   10.7500	-1.173E-06	 6.732E-12	 0.000E+00	-4.079E-05	 1.679E-11	 8.511E-11	 8.972E-06
   10.8000	-2.671E-06	-6.189E-14	 0.000E+00	-4.702E-05	 1.273E-11	-2.352E-10	 8.385E-06
   10.8500	-4.603E-06	 2.119E-11	 0.000E+00	-5.312E-05	-8.460E-12	 3.235E-10	 8.327E-06
   10.9000	-6.986E-06	 8.487E-12	 0.000E+00	-5.902E-05	-4.195E-11	-1.531E-10	 9.264E-06
   10.9500	-9.846E-06	 1.368E-11	 0.000E+00	-6.485E-05	-5.720E-11	 1.772E-10	 1.210E-05
   11.0000	-1.316E-05	-9.949E-12	 0.000E+00	-7.094E-05	-5.709E-11	-2.333E-10	 1.661E-05
   11.0500	-1.690E-05	 1.925E-12	 0.000E+00	-7.780E-05	-5.338E-11	 4.731E-10	 2.255E-05
   11.1000	-2.109E-05	-1.239E-11	 0.000E+00	-8.600E-05	-3.303E-11	 2.960E-10	 2.871E-05
   11.1500	-2.583E-05	-1.686E-11	 0.000E+00	-9.594E-05	-2.961E-11	 9.629E-11	 3.399E-05
   11.2000	-3.129E-05	-2.494E-11	 0.000E+00	-1.079E-04	-2.365E-11	-4.959E-10	 3.773E-05
   11.2500	-3.760E-05	 7.518E-12	 0.000E+00	-1.220E-04	 3.705E-12	 3.135E-10	 4.032E-05
   11.3000	-4.477E-05	-8.579E-13	 0.000E+00	-1.384E-04	-2.237E-11	-3.834E-10	 4.243E-05
   11.3500	-5.270E-05	 6.448E-12	 0.000E+00	-1.573E-04	 3.853E-11	 1.540E-10	 4.431E-05
   11.4000	-6.134E-05	-5.101E-12	 0.000E+00	-1.787E-04	 6.814E-11	 2.652E-10	 4.621E-05
   11.4500	-7.078E-05	-4.239E-11	 0.000E+00	-2.026E-04	 1.126E-10	-4.587E-10	 4.654E-05
   11.5000	-8.144E-05	-2.741E-11	 0.000E+00	-2.284E-04	 1.249E-10	-3.414E-11	 4.604E-05
   11.5500	-9.375E-05	-4.212E-11	 0.000E+00	-2.553E-04	 1.711E-10	-6.819E-10	 4.366E-05
   11.6000	-1.080E-04	 1.425E-11	 0.000E+00	-2.826E-04	 1.067E-10	 5.290E-11	 3.981E-05
   11.6500	-1.245E-04	 6.356E-11	 0.000E+00	-3.094E-04	 3.047E-11	 4.994E-10	 3.577E-05
   11.7000	-1.429E-04	 4.339E-11	 0.000E+00	-3.355E-04	-7.548E-11	-7.761E-10	 3.337E-05
   11.7500	-1.632E-04	 4.953E-11	 0.000E+00	-3.609E-04	-1.054E-10	-5.917E-11	 3.337E-05
   11.8000	-1.851E-04	 4.950E-11	 0.000E+00	-3.856E-04	-1.129E-10	 1.158E-09	 3.746E-05
   11.8500	-2.087E-04	-6.953E-12	 0.000E+00	-4.104E-04	-1.000E-10	 7.089E-10	 4.487E-05
   11.9000	-2.341E-04	-6.929E-11	 0.000E+00	-4.356E-04	-1.406E-10	-8.682E-10	 5.336E-05
   11.9500	-2.618E-04	 7.483E-12	 0.000E+00	-4.619E-04	-8.674E-11	 1.514E-09	 6.182E-05
   12.0000	-2.918E-04	-2.467E-11	 0.000E+00	-4.899E-04	-5.893E-11	-2.684E-10	 6.749E-05
   12.0500	-3.242E-04	 7.972E-11	 0.000E+00	-5.203E-04	-9.992E-11	 1.558E-09	 6.968E-05
   12.1000	-3.587E-04	 3.470E-11	 0.000E+00	-5.530E-04	-1.209E-10	-9.876E-10	 6.824E-05
   12.1500	-3.951E-04	 8.057E-11	 0.000E+00	-5.884E-04	 2.954E-11	 1.280E-09	 6.543E-05
   12.2000	-4.330E-04	-5.710E-11	 0.000E+00	-6.261E-04	 1.496E-10	-1.703E-09	 5.816E-05
   12.2500	-4.728E-04	-2.823E-11	 0.000E+00	-6.652E-04	 2.309E-10	-3.236E-11	 4.699E-05
   12.3000	-5.147E-04	-3.092E-11	 0.000E+00	-7.041E-04	 3.697E-10	 4.759E-10	 3.354E-05
   12.3500	-5.591E-04	-4.584E-11	 0.000E+00	-7.410E-04	 3.060E-10	-1.202E-09	 1.892E-05
   12.4000	-6.061E-04	 5.660E-11	 0.000E+00	-7.746E-04	 1.791E-10	-5.117E-11	 4.621E-06
   12.4500	-6.552E-04	 1.122E-10	 0.000E+00	-8.042E-04	 2.808E-12	 1.859E-11	-4.774E-06
   12.5000	-7.056E-04	 1.383E-10	 0.000E+00	-8.300E-04	-1.095E-10	 1.059E-09	-7.980E-06
   12.5500	-7.567E-04	 8.049E-11	 0.000E+00	-8.529E-04	-2.212E-10	 6.194E-10	-4.621E-06
   12.6000	-8.081E-04	-1.511E-11	 0.000E+00	-8.741E-04	-1.748E-10	 4.212E-10	 2.525E-06
   12.6500	-8.600E-04	-6.555E-11	 0.000E+00	-8.946E-04	-1.046E-10	 1.120E-09	 1.013E-05
   12.7000	-9.127E-04	-1.513E-11	 0.000E+00	-9.152E-04	-2.766E-10	 2.001E-09	 1.845E-05
   12.7500	-9.662E-04	-5.940E-11	 0.000E+00	-9.372E-04	-2.570E-10	-5.892E-10	 2.400E-05
   12.8000	-1.020E-03	 2.708E-11	 0.000E+00	-9.621E-04	-3.539E-10	-3.294E-11	 2.792E-05
   12.8500	-1.072E-03	 6.103E-11	 0.000E+00	-9.918E-04	-4.417E-10	-7.046E-10	 3.177E-05
   12.9000	-1.123E-03	 4.382E-11	 0.000E+00	-1.028E-03	-1.637E-10	 7.321E-10	 3.624E-05
   12.9500	-1.171E-03	-1.117E-10	 0.000E+00	-1.071E-03	 1.420E-10	-1.035E-09	 3.755E-05
   13.0000	-1.217E-03	-1.362E-10	 0.000E+00	-1.122E-03	 2.775E-10	-4.310E-10	 3.528E-05
   13.0500	-1.262E-03	-1.715E-10	 0.000E+00	-1.178E-03	 5.415E-10	-7.526E-10	 2.983E-05
   13.1000	-1.307E-03	-8.425E-11	 0.000E+00	-1.238E-03	 7.126E-10	 1.256E-09	 2.031E-05
   13.1500	-1.351E-03	-1.203E-10	 0.000E+00	-1.300E-03	 5.489E-10	-3.709E-09	-2.488E-07
   13.2000	-1.396E-03	 6.278E-11	 0.000E+00	-1.362E-03	 4.718E-10	-1.368E-09	-2.988E-05
   13.2500	-1.440E-03	 1.522E-10	 0.000E+00	-1.420E-03	 3.587E-10	-9.472E-11	-6.012E-05
   13.3000	-1.485E-03	 1.709E-10	 0.000E+00	-1.471E-03	 9.005E-12	-9.893E-11	-8.293E-05
   13.3500	-1.530E-03	-4.933E-11	 0.000E+00	-1.514E-03	 1.328E-10	-3.413E-09	-1.029E-04
   13.4000	-1.574E-03	 1.196E-10	 0.000E+00	-1.545E-03	-1.200E-10	 4.053E-09	-1.134E-04
   13.4500	-1.618E-03	-3.852E-11	 0.000E+00	-1.566E-03	-4.256E-10	-7.245E-10	-1.160E-04
   13.5000	-1.663E-03	-1.443E-11	 0.000E+00	-1.575E-03	-4.896E-10	 2.343E-10	-1.108E-04
   13.5500	-1.708E-03	 1.434E-10	 0.000E+00	-1.574E-03	-7.716E-10	 2.986E-09	-9.742E-05
   13.6000	-1.752E-03	 1.728E-10	 0.000E+00	-1.567E-03	-9.368E-10	 1.897E-09	-7.909E-05
   13.6500	-1.794E-03	 1.019E-10	 0.000E+00	-1.556E-03	-8.376E-10	 5.698E-11	-6.147E-05
   13.7000	-1.834E-03	 9.301E-11	 0.000E+00	-1.545E-03	-5.683E-10	 1.916E-09	-4.826E-05
   13.7500	-1.870E-03	-2.724E-11	 0.000E+00	-1.536E-03	-5.123E-10	-8.030E-10	-3.850E-05
   13.8000	-1.904E-03	-2.128E-10	 0.000E+00	-1.531E-03	-1.648E-11	-3.889E-09	-3.432E-05
   13.8500	-1.933E-03	-2.804E-11	 0.000E+00	-1.531E-03	-1.386E-11	 1.671E-09	-2.264E-05
   13.9000	-1.958E-03	-2.106E-10	 0.000E+00	-1.539E-03	 3.673E-10	-2.864E-09	-8.411E-06
   13.9500	-1.976E-03	-1.783E-10	 0.000E+00	-1.558E-03	 6.779E-10	-5.418E-10	 6.736E-06
   14.0000	-1.987E-03	-1.840E-10	 0.000E+00	-1.591E-03	 8.856E-10	-4.697E-10	 1.728E-05
   14.0500	-1.993E-03	-1.701E-10	 0.000E+00	-1.636E-03	 1.101E-09	 1.839E-10	 2.037E-05
   14.1000	-1.996E-03	-2.287E-10	 0.000E+00	-1.690E-03	 1.109E-09	-3.142E-09	 1.256E-05
   14.1500	-1.997E-03	-5.889E-11	 0.000E+00	-1.750E-03	 8.865E-10	-8.599E-10	-4.271E-06
   14.2000	-1.996E-03	 4.006E-11	 0.000E+00	-1.814E-03	 4.479E-10	-1.010E-09	-2.308E-05
   14.2500	-1.993E-03	 4.649E-11	 0.000E+00	-1.879E-03	 1.890E-10	-9.018E-10	-4.069E-05
   14.3000	-1.988E-03	 7.366E-11	 0.000E+00	-1.944E-03	-1.417E-10	 1.480E-09	-5.176E-05
   14.3500	-1.980E-03	-2.962E-11	 0.000E+00	-2.006E-03	-4.158E-10	 5.157E-10	-5.434E-05
   14.4000	-1.972E-03	-2.054E-10	 0.000E+00	-2.062E-03	-3.310E-10	-2.125E-09	-5.371E-05
   14.4500	-1.966E-03	-1.132E-11	 0.000E+00	-2.110E-03	-6.773E-10	 1.560E-09	-4.631E-05
   14.5000	-1.964E-03	 1.043E-10	 0.000E+00	-2.148E-03	-7.838E-10	 1.375E-09	-3.658E-05
   14.5500	-1.966E-03	 2.257E-10	 0.000E+00	-2.176E-03	-1.161E-09	-4.940E-10	-2.398E-05
   14.6000	-1.971E-03	 3.753E-10	 0.000E+00	-2.196E-03	-1.183E-09	 1.786E-09	-9.064E-06
   14.6500	-1.978E-03	 2.578E-10	 0.000E+00	-2.212E-03	-1.033E-09	 1.732E-10	 1.118E-05
   14.7000	-1.986E-03	 1.503E-10	 0.000E+00	-2.225E-03	-5.554E-10	 2.977E-09	 3.749E-05
   14.7500	-1.996E-03	-1.459E-10	 0.000E+00	-2.239E-03	-3.139E-11	 1.924E-10	 6.621E-05
   14.8000	-2.008E-03	-2.141E-10	 0.000E+00	-2.256E-03	 4.381E-10	 1.364E-09	 9.445E-05
   14.8500	-2.023E-03	-3.428E-10	 0.000E+00	-2.276E-03	 6.994E-10	-4.305E-09	 1.142E-04
   14.9000	-2.043E-03	 3.378E-11	 0.000E+00	-2.301E-03	 6.964E-10	 1.798E-09	 1.288E-04
   14.9500	-2.066E-03	-5.135E-12	 0.000E+00	-2.333E-03	 8.387E-10	-3.758E-09	 1.332E-04
   15.0000	-2.091E-03	 1.712E-10	 0.000E+00	-2.373E-03	 9.455E-10	 5.469E-10	 1.257E-04
   15.0500	-2.117E-03	 8.219E-11	 0.000E+00	-2.420E-03	 8.485E-10	-1.355E-09	 1.065E-04
   15.1000	-2.147E-03	-1.321E-10	 0.000E+00	-2.471E-03	 1.069E-09	-3.262E-09	 7.615E-05
   15.1500	-2.180E-03	-1.344E-10	 0.000E+00	-2.519E-03	 8.692E-10	-5.470E-10	 4.281E-05
   15.2000	-2.219E-03	-1.087E-10	 0.000E+00	-2.562E-03	 5.529E-10	 1.078E-10	 9.601E-06
   15.2500	-2.262E-03	-2.265E-11	 0.000E+00	-2.595E-03	-1.547E-12	-6.213E-10	-1.857E-05
   15.3000	-2.309E-03	 1.107E-10	 0.000E+00	-2.618E-03	-5.127E-10	-6.645E-10	-4.078E-05
   15.3500	-2.359E-03	 3.355E-10	 0.000E+00	-2.630E-03	-1.051E-09	 2.965E-09	-5.035E-05
   15.4000	-2.412E-03	 3.005E-10	 0.000E+00	-2.631E-03	-1.229E-09	 2.429E-09	-4.679E-05
   15.4500	-2.466E-03	 9.801E-11	 0.000E+00	-2.623E-03	-1.370E-09	-1.581E-09	-3.316E-05
   15.5000	-2.522E-03	 1.385E-10	 0.000E+00	-2.609E-03	-1.303E-09	 3.098E-09	-1.065E-05
   15.5500	-2.581E-03	 6.541E-12	 0.000E+00	-2.592E-03	-8.674E-10	 3.545E-09	 1.460E-05
   15.6000	-2.639E-03	-6.945E-11	 0.000E+00	-2.576E-03	-6.008E-10	 2.455E-09	 3.264E-05
   15.6500	-2.697E-03	-4.293E-11	 0.000E+00	-2.565E-03	-4.947E-10	 4.461E-10	 3.997E-05
   15.7000	-2.754E-03	-3.188E-11	 0.000E+00	-2.562E-03	 2.803E-11	-7.480E-10	 3.889E-05
   15.7500	-2.809E-03	 1.307E-10	 0.000E+00	-2.567E-03	 6.273E-10	 4.599E-09	 3.347E-05
   15.8000	-2.860E-03	-9.823E-11	 0.000E+00	-2.582E-03	 7.626E-10	-3.972E-09	 1.925E-05
   15.8500	-2.907E-03	 3.731E-11	 0.000E+00	-2.605E-03	 1.383E-09	 2.957E-09	-1.031E-06
   15.9000	-2.950E-03	-2.193E-10	 0.000E+00	-2.635E-03	 1.492E-09	-3.405E-09	-2.478E-05
   15.9500	-2.989E-03	-1.660E-10	 0.000E+00	-2.668E-03	 1.566E-09	-8.477E-10	-5.355E-05
   16.0000	-3.026E-03	-1.833E-10	 0.000E+00	-2.703E-03	 1.291E-09	-2.649E-09	-8.339E-05
   16.0500	-3.060E-03	 3.667E-11	 0.000E+00	-2.734E-03	 8.174E-10	 1.786E-09	-1.067E-04
   16.1000	-3.090E-03	 4.417E-11	 0.000E+00	-2.762E-03	 2.630E-10	 9.249E-11	-1.206E-04
   16.1500	-3.116E-03	 1.028E-10	 0.000E+00	-2.786E-03	-5.132E-10	 1.837E-10	-1.202E-04
   16.2000	-3.137E-03	-1.091E-11	 0.000E+00	-2.807E-03	-6.919E-10	-3.956E-10	-1.113E-04
   16.2500	-3.154E-03	-4.007E-11	 0.000E+00	-2.825E-03	-1.173E-09	 2.612E-10	-9.387E-05
   16.3000	-3.167E-03	-6.869E-11	 0.000E+00	-2.842E-03	-1.108E-09	 1.926E-09	-7.701E-05
   16.3500	-3.178E-03	-1.103E-10	 0.000E+00	-2.858E-03	-1.461E-09	-1.498E-09	-6.061E-05
   16.4000	-3.188E-03	 4.929E-11	 0.000E+00	-2.874E-03	-1.315E-09	 1.293E-09	-4.673E-05
   16.4500	-3.194E-03	 1.555E-10	 0.000E+00	-2.892E-03	-1.252E-09	 2.198E-09	-2.958E-05
   16.5000	-3.197E-03	 1.227E-10	 0.000E+00	-2.916E-03	-8.723E-10	 1.024E-09	-1.315E-05
   16.5500	-3.194E-03	 1.810E-11	 0.000E+00	-2.948E-03	-1.070E-10	 1.206E-09	-9.517E-07
   16.6000	-3.187E-03	-1.145E-10	 0.000E+00	-2.986E-03	 6.315E-10	 6.019E-10	 3.087E-06
   16.6500	-3.179E-03	-1.741E-10	 0.000E+00	-3.029E-03	 1.245E-09	 4.213E-12	-4.104E-06
   16.7000	-3.171E-03	-1.450E-10	 0.000E+00	-3.072E-03	 1.539E-09	-1.540E-09	-2.007E-05